# Region      : all region0
# Cells       : 3744
# Volume      : 5.645150e-06
# Time        	volAverage(gamma)
0.88047       	7.412969e-02
3.86707       	1.417456e-01
5.09531       	1.454496e-01
5.90985       	1.460679e-01
6.51394       	1.463383e-01
7.02901       	1.465820e-01
7.5082        	1.468034e-01
7.96591       	1.475197e-01
8.41042       	1.477775e-01
8.84806       	1.480031e-01
9.27851       	1.482302e-01
9.69396       	1.484534e-01
10.1009       	1.486748e-01
10.5024       	1.488951e-01
10.9015       	1.491148e-01
11.2989       	1.493350e-01
11.7094       	1.500163e-01
12.1412       	1.502480e-01
12.5584       	1.504784e-01
12.9656       	1.511134e-01
13.3666       	1.514466e-01
13.7631       	1.517805e-01
14.146        	1.519989e-01
14.5015       	1.521938e-01
14.8504       	1.523803e-01
15.2112       	1.527800e-01
15.5952       	1.531980e-01
16.0085       	1.539847e-01
16.4223       	1.547212e-01
16.8958       	1.551717e-01
17.3615       	1.557126e-01
17.8205       	1.561432e-01
18.3063       	1.564659e-01
18.7855       	1.567740e-01
19.2874       	1.571140e-01
19.7793       	1.573861e-01
20.2595       	1.576577e-01
20.7397       	1.581287e-01
21.1969       	1.586527e-01
21.6391       	1.597600e-01
22.0645       	1.600066e-01
22.492        	1.604899e-01
22.9107       	1.613419e-01
23.3275       	1.619262e-01
23.7651       	1.625627e-01
24.2383       	1.627380e-01
24.7221       	1.632201e-01
25.2128       	1.642877e-01
25.7254       	1.653565e-01
26.2517       	1.658128e-01
26.776        	1.666327e-01
27.2978       	1.680468e-01
27.8126       	1.702166e-01
28.328        	1.714386e-01
28.8324       	1.724591e-01
29.3084       	1.727996e-01
29.7703       	1.738914e-01
30.2237       	1.741730e-01
30.6649       	1.744332e-01
31.1036       	1.746770e-01
31.5423       	1.754195e-01
31.9853       	1.757370e-01
32.4334       	1.760085e-01
32.8871       	1.771917e-01
33.3489       	1.776812e-01
33.8388       	1.781802e-01
34.3576       	1.785268e-01
34.865        	1.790916e-01
35.35         	1.793805e-01
35.8166       	1.796767e-01
36.276        	1.799552e-01
36.7293       	1.805936e-01
37.1934       	1.809027e-01
37.6701       	1.811882e-01
38.127        	1.814698e-01
38.5716       	1.817482e-01
39.0197       	1.824778e-01
39.4819       	1.832511e-01
39.9237       	1.839416e-01
40.3415       	1.851953e-01
40.7506       	1.854335e-01
41.1637       	1.864399e-01
41.586        	1.868234e-01
42.0187       	1.870774e-01
42.4656       	1.875994e-01
42.9197       	1.881307e-01
43.3772       	1.886865e-01
43.8244       	1.889644e-01
44.2801       	1.892569e-01
44.7462       	1.900976e-01
45.238        	1.909118e-01
45.7437       	1.913810e-01
46.2682       	1.920516e-01
46.7804       	1.924253e-01
47.272        	1.932409e-01
47.7259       	1.934850e-01
48.1481       	1.941886e-01
48.5525       	1.944058e-01
48.9469       	1.948964e-01
49.3294       	1.952121e-01
49.7034       	1.953890e-01
50.0724       	1.955663e-01
50.4268       	1.974115e-01
50.7626       	1.977408e-01
51.1076       	1.983160e-01
51.4561       	1.985109e-01
51.7992       	1.986983e-01
52.1324       	1.989270e-01
52.4644       	1.994179e-01
52.7981       	2.001362e-01
53.1172       	2.003146e-01
53.4415       	2.007236e-01
53.7936       	2.009241e-01
54.14         	2.012793e-01
54.4888       	2.015718e-01
54.8479       	2.017570e-01
55.2065       	2.019484e-01
55.569        	2.021422e-01
55.9319       	2.023303e-01
56.3104       	2.027991e-01
56.7178       	2.030431e-01
57.137        	2.032687e-01
57.5493       	2.038254e-01
57.9545       	2.040697e-01
58.3496       	2.042804e-01
58.7391       	2.046946e-01
59.1324       	2.048949e-01
59.531        	2.050994e-01
59.9301       	2.053038e-01
60.3369       	2.055696e-01
60.7356       	2.057702e-01
61.1048       	2.060535e-01
61.4427       	2.062250e-01
61.767        	2.063906e-01
62.0797       	2.065504e-01
62.389        	2.069706e-01
62.7177       	2.077609e-01
63.0511       	2.082499e-01
63.3851       	2.084455e-01
63.7129       	2.085943e-01
64.0239       	2.093483e-01
64.3205       	2.097981e-01
64.6165       	2.099938e-01
64.9376       	2.102152e-01
65.3043       	2.107467e-01
65.6948       	2.113430e-01
66.1177       	2.116642e-01
66.5675       	2.119208e-01
67.0176       	2.126869e-01
67.4587       	2.138221e-01
67.9055       	2.141886e-01
68.3456       	2.143879e-01
68.7606       	2.145386e-01
69.1532       	2.146569e-01
69.502        	2.147434e-01
69.834        	2.148839e-01
70.1632       	2.150302e-01
70.4815       	2.151803e-01
70.8037       	2.153411e-01
71.1178       	2.157367e-01
71.4252       	2.160617e-01
71.7292       	2.162491e-01
72.0348       	2.166813e-01
72.3412       	2.168443e-01
72.6513       	2.170017e-01
72.9611       	2.171518e-01
73.2667       	2.173056e-01
73.5684       	2.174592e-01
73.8604       	2.175395e-01
74.1493       	2.177026e-01
74.4686       	2.185106e-01
74.8276       	2.186669e-01
75.2048       	2.188773e-01
75.5878       	2.190935e-01
75.9802       	2.193157e-01
76.3936       	2.195484e-01
76.83         	2.197925e-01
77.2649       	2.202888e-01
77.7049       	2.208874e-01
78.1516       	2.216863e-01
78.5847       	2.230240e-01
78.991        	2.240567e-01
79.3755       	2.243878e-01
79.7461       	2.246897e-01
80.0927       	2.249108e-01
80.4183       	2.251291e-01
80.7322       	2.253326e-01
81.0386       	2.255300e-01
81.3399       	2.257029e-01
81.6372       	2.261287e-01
81.9349       	2.267051e-01
82.2335       	2.269946e-01
82.5317       	2.272065e-01
82.8222       	2.273672e-01
83.1119       	2.275252e-01
83.4045       	2.276883e-01
83.7129       	2.278915e-01
84.0372       	2.281685e-01
84.3592       	2.287686e-01
84.6802       	2.292590e-01
84.9991       	2.295217e-01
85.3195       	2.297062e-01
85.659        	2.299011e-01
86.0234       	2.303655e-01
86.4008       	2.305886e-01
86.7832       	2.310696e-01
87.1726       	2.322800e-01
87.5767       	2.326104e-01
88.0001       	2.327700e-01
88.4242       	2.330264e-01
88.8496       	2.336416e-01
89.2732       	2.346765e-01
89.6933       	2.349531e-01
90.0972       	2.351934e-01
90.4782       	2.354153e-01
90.8508       	2.361312e-01
91.2156       	2.375568e-01
91.5568       	2.377918e-01
91.8845       	2.379751e-01
92.1953       	2.384485e-01
92.4945       	2.390485e-01
92.787        	2.393744e-01
93.0763       	2.397343e-01
93.3668       	2.399246e-01
93.6706       	2.404205e-01
93.9731       	2.405866e-01
94.2689       	2.407622e-01
94.5697       	2.414188e-01
94.8916       	2.419681e-01
95.2353       	2.423037e-01
95.5601       	2.431552e-01
95.8829       	2.434702e-01
96.212        	2.437119e-01
96.5455       	2.439206e-01
96.8871       	2.441269e-01
97.2484       	2.443234e-01
97.6228       	2.445411e-01
98.0057       	2.447495e-01
98.4042       	2.456628e-01
98.8211       	2.458788e-01
99.2384       	2.463118e-01
99.6514       	2.468519e-01
100.061       	2.473971e-01
100.448       	2.478137e-01
100.825       	2.482930e-01
101.201       	2.485090e-01
101.57        	2.489891e-01
101.929       	2.491927e-01
102.275       	2.493935e-01
102.612       	2.495844e-01
102.937       	2.497710e-01
103.256       	2.499544e-01
103.569       	2.501334e-01
103.877       	2.503091e-01
104.186       	2.504839e-01
104.493       	2.509063e-01
104.8         	2.510967e-01
105.109       	2.512706e-01
105.417       	2.514450e-01
105.724       	2.516200e-01
106.031       	2.517962e-01
106.348       	2.527173e-01
106.686       	2.531729e-01
107.021       	2.533572e-01
107.346       	2.535405e-01
107.667       	2.537216e-01
108           	2.539125e-01
108.343       	2.541134e-01
108.693       	2.551998e-01
109.053       	2.554928e-01
109.424       	2.562409e-01
109.802       	2.571877e-01
110.183       	2.575249e-01
110.574       	2.577560e-01
110.973       	2.582284e-01
111.379       	2.584713e-01
111.789       	2.589717e-01
112.197       	2.592170e-01
112.603       	2.594628e-01
113.009       	2.599407e-01
113.415       	2.608131e-01
113.814       	2.610601e-01
114.204       	2.615522e-01
114.581       	2.622285e-01
114.938       	2.628590e-01
115.277       	2.630875e-01
115.596       	2.634153e-01
115.896       	2.639105e-01
116.192       	2.643601e-01
116.494       	2.647264e-01
116.802       	2.651498e-01
117.11        	2.655769e-01
117.413       	2.657349e-01
117.715       	2.658904e-01
118.021       	2.660543e-01
118.352       	2.664945e-01
118.711       	2.669597e-01
119.059       	2.671639e-01
119.397       	2.676349e-01
119.727       	2.678397e-01
120.058       	2.680486e-01
120.39        	2.682486e-01
120.744       	2.691055e-01
121.114       	2.698379e-01
121.493       	2.700905e-01
121.877       	2.708292e-01
122.266       	2.710713e-01
122.662       	2.712356e-01
123.071       	2.714222e-01
123.475       	2.714993e-01
123.86        	2.717177e-01
124.228       	2.722024e-01
124.581       	2.724075e-01
124.916       	2.728506e-01
125.235       	2.730574e-01
125.546       	2.732391e-01
125.852       	2.736729e-01
126.155       	2.740996e-01
126.462       	2.742660e-01
126.779       	2.744390e-01
127.096       	2.746152e-01
127.404       	2.747901e-01
127.71        	2.754806e-01
128.02        	2.759353e-01
128.349       	2.761251e-01
128.691       	2.763242e-01
129.039       	2.765318e-01
129.378       	2.767371e-01
129.711       	2.769414e-01
130.04        	2.771418e-01
130.362       	2.773411e-01
130.682       	2.775418e-01
131.021       	2.782826e-01
131.373       	2.784962e-01
131.729       	2.787169e-01
132.087       	2.789397e-01
132.446       	2.794191e-01
132.809       	2.796368e-01
133.175       	2.798546e-01
133.547       	2.803421e-01
133.923       	2.805666e-01
134.286       	2.810510e-01
134.629       	2.812613e-01
134.952       	2.817226e-01
135.258       	2.819039e-01
135.549       	2.823334e-01
135.833       	2.825023e-01
136.117       	2.829224e-01
136.401       	2.830759e-01
136.686       	2.832323e-01
136.979       	2.836543e-01
137.278       	2.840809e-01
137.58        	2.842457e-01
137.877       	2.844084e-01
138.175       	2.845747e-01
138.484       	2.850164e-01
138.821       	2.852137e-01
139.178       	2.856950e-01
139.526       	2.861736e-01
139.861       	2.863848e-01
140.184       	2.865938e-01
140.504       	2.870624e-01
140.841       	2.875429e-01
141.192       	2.877667e-01
141.56        	2.880001e-01
141.941       	2.884985e-01
142.323       	2.889850e-01
142.703       	2.894624e-01
143.088       	2.899337e-01
143.478       	2.901434e-01
143.879       	2.903658e-01
144.278       	2.905958e-01
144.671       	2.910929e-01
145.052       	2.913177e-01
145.408       	2.915323e-01
145.734       	2.917307e-01
146.039       	2.921780e-01
146.33        	2.923524e-01
146.615       	2.925192e-01
146.898       	2.929485e-01
147.183       	2.933786e-01
147.474       	2.935479e-01
147.773       	2.937191e-01
148.08        	2.941601e-01
148.386       	2.943387e-01
148.686       	2.945168e-01
148.991       	2.949620e-01
149.311       	2.951541e-01
149.657       	2.953689e-01
150.009       	2.955925e-01
150.382       	2.958348e-01
150.748       	2.960774e-01
151.105       	2.965847e-01
151.452       	2.978776e-01
151.794       	2.983646e-01
152.138       	2.991110e-01
152.494       	2.995903e-01
152.866       	2.998100e-01
153.244       	3.002817e-01
153.637       	3.007855e-01
154.02        	3.010070e-01
154.39        	3.012184e-01
154.754       	3.014276e-01
155.119       	3.016388e-01
155.483       	3.018514e-01
155.827       	3.020539e-01
156.141       	3.027515e-01
156.432       	3.029337e-01
156.71        	3.030940e-01
156.98        	3.035135e-01
157.248       	3.038977e-01
157.516       	3.043477e-01
157.79        	3.047637e-01
158.079       	3.049211e-01
158.378       	3.050867e-01
158.694       	3.052651e-01
159.004       	3.054448e-01
159.311       	3.056246e-01
159.62        	3.058100e-01
159.942       	3.062653e-01
160.294       	3.067451e-01
160.657       	3.069742e-01
161.036       	3.072182e-01
161.414       	3.074678e-01
161.787       	3.079802e-01
162.154       	3.084903e-01
162.522       	3.087345e-01
162.896       	3.089820e-01
163.271       	3.100709e-01
163.639       	3.105554e-01
164.001       	3.107627e-01
164.355       	3.112227e-01
164.707       	3.119501e-01
165.062       	3.121391e-01
165.425       	3.123356e-01
165.786       	3.125349e-01
166.137       	3.127330e-01
166.461       	3.129190e-01
166.76        	3.139282e-01
167.042       	3.143004e-01
167.315       	3.144560e-01
167.585       	3.146101e-01
167.862       	3.147660e-01
168.148       	3.157180e-01
168.446       	3.158756e-01
168.746       	3.162924e-01
169.042       	3.164572e-01
169.338       	3.166192e-01
169.645       	3.167922e-01
169.975       	3.172468e-01
170.324       	3.177166e-01
170.695       	3.182006e-01
171.073       	3.184336e-01
171.446       	3.186712e-01
171.814       	3.189122e-01
172.189       	3.191580e-01
172.574       	3.196728e-01
172.963       	3.203807e-01
173.353       	3.209363e-01
173.744       	3.214392e-01
174.136       	3.219281e-01
174.516       	3.221298e-01
174.887       	3.223251e-01
175.26        	3.225227e-01
175.649       	3.231358e-01
176.056       	3.238857e-01
176.457       	3.241050e-01
176.829       	3.245775e-01
177.161       	3.247663e-01
177.466       	3.252030e-01
177.754       	3.253690e-01
178.034       	3.255274e-01
178.316       	3.256862e-01
178.602       	3.259783e-01
178.892       	3.262727e-01
179.188       	3.264370e-01
179.494       	3.266090e-01
179.809       	3.267898e-01
180.125       	3.269756e-01
180.439       	3.274294e-01
180.765       	3.279267e-01
181.118       	3.281434e-01
181.489       	3.283779e-01
181.859       	3.286151e-01
182.236       	3.293888e-01
182.611       	3.299986e-01
182.977       	3.304108e-01
183.34        	3.309102e-01
183.707       	3.314148e-01
184.083       	3.319164e-01
184.463       	3.324092e-01
184.838       	3.328922e-01
185.2         	3.333550e-01
185.571       	3.338096e-01
185.97        	3.340137e-01
186.37        	3.342206e-01
186.754       	3.346839e-01
187.132       	3.348841e-01
187.508       	3.350857e-01
187.888       	3.352962e-01
188.244       	3.357613e-01
188.572       	3.364739e-01
188.885       	3.366459e-01
189.196       	3.368197e-01
189.517       	3.369995e-01
189.85        	3.371867e-01
190.175       	3.373699e-01
190.485       	3.375443e-01
190.789       	3.377165e-01
191.098       	3.381556e-01
191.427       	3.383417e-01
191.795       	3.385532e-01
192.17        	3.387682e-01
192.547       	3.394984e-01
192.939       	3.400012e-01
193.331       	3.404938e-01
193.721       	3.407245e-01
194.113       	3.409610e-01
194.495       	3.417201e-01
194.865       	3.419391e-01
195.226       	3.421556e-01
195.58        	3.423684e-01
195.922       	3.425682e-01
196.248       	3.427572e-01
196.555       	3.429310e-01
196.847       	3.433600e-01
197.131       	3.435163e-01
197.412       	3.436708e-01
197.697       	3.438256e-01
197.992       	3.439855e-01
198.303       	3.441553e-01
198.63        	3.443354e-01
198.948       	3.445128e-01
199.252       	3.446844e-01
199.548       	3.448510e-01
199.841       	3.452804e-01
200.147       	3.461756e-01
200.484       	3.466978e-01
200.849       	3.474443e-01
201.213       	3.476565e-01
201.594       	3.481490e-01
201.977       	3.483825e-01
202.376       	3.486334e-01
202.774       	3.491539e-01
203.16        	3.496355e-01
203.536       	3.501737e-01
203.913       	3.504077e-01
204.281       	3.508913e-01
204.637       	3.510943e-01
204.985       	3.512848e-01
205.326       	3.514624e-01
205.658       	3.518946e-01
205.989       	3.523188e-01
206.325       	3.524764e-01
206.668       	3.526377e-01
207.014       	3.527986e-01
207.359       	3.529632e-01
207.702       	3.531295e-01
208.04        	3.538254e-01
208.371       	3.539864e-01
208.696       	3.541488e-01
209.02        	3.543128e-01
209.348       	3.544801e-01
209.688       	3.546538e-01
210.055       	3.551065e-01
210.424       	3.552980e-01
210.789       	3.557548e-01
211.15        	3.559460e-01
211.52        	3.564068e-01
211.909       	3.566161e-01
212.297       	3.568290e-01
212.684       	3.572409e-01
213.076       	3.575290e-01
213.484       	3.577559e-01
213.884       	3.579849e-01
214.266       	3.582084e-01
214.635       	3.584251e-01
214.986       	3.591575e-01
215.317       	3.593431e-01
215.628       	3.595152e-01
215.932       	3.599514e-01
216.233       	3.601192e-01
216.536       	3.602867e-01
216.844       	3.604560e-01
217.16        	3.606268e-01
217.484       	3.607991e-01
217.812       	3.609723e-01
218.143       	3.616768e-01
218.488       	3.618584e-01
218.86        	3.623254e-01
219.228       	3.625302e-01
219.593       	3.630022e-01
219.963       	3.632174e-01
220.363       	3.637193e-01
220.773       	3.639637e-01
221.175       	3.649963e-01
221.57        	3.652206e-01
221.968       	3.654494e-01
222.367       	3.656780e-01
222.765       	3.659018e-01
223.148       	3.661174e-01
223.507       	3.663196e-01
223.845       	3.667720e-01
224.169       	3.674821e-01
224.483       	3.676541e-01
224.79        	3.678205e-01
225.093       	3.685148e-01
225.393       	3.686765e-01
225.695       	3.688391e-01
226.001       	3.690002e-01
226.314       	3.691608e-01
226.636       	3.695911e-01
226.952       	3.697542e-01
227.264       	3.699182e-01
227.578       	3.700851e-01
227.905       	3.705265e-01
228.256       	3.707192e-01
228.623       	3.709285e-01
228.991       	3.711436e-01
229.374       	3.713719e-01
229.781       	3.718822e-01
230.192       	3.721297e-01
230.593       	3.723745e-01
230.992       	3.728826e-01
231.384       	3.731169e-01
231.77        	3.733421e-01
232.149       	3.735585e-01
232.518       	3.737637e-01
232.873       	3.739537e-01
233.217       	3.741331e-01
233.553       	3.745701e-01
233.882       	3.747328e-01
234.202       	3.748900e-01
234.518       	3.750428e-01
234.834       	3.751959e-01
235.162       	3.753547e-01
235.508       	3.757899e-01
235.855       	3.759588e-01
236.186       	3.761257e-01
236.509       	3.762931e-01
236.828       	3.767251e-01
237.152       	3.768985e-01
237.49        	3.773432e-01
237.855       	3.775407e-01
238.229       	3.777452e-01
238.611       	3.784860e-01
239.006       	3.792288e-01
239.416       	3.794447e-01
239.841       	3.796706e-01
240.261       	3.798998e-01
240.666       	3.806550e-01
241.059       	3.808691e-01
241.456       	3.813528e-01
241.834       	3.815603e-01
242.178       	3.817523e-01
242.501       	3.819330e-01
242.81        	3.821044e-01
243.112       	3.822690e-01
243.41        	3.824307e-01
243.707       	3.825892e-01
244.007       	3.827465e-01
244.317       	3.829070e-01
244.637       	3.835340e-01
244.946       	3.837522e-01
245.248       	3.839013e-01
245.549       	3.840478e-01
245.864       	3.842056e-01
246.212       	3.843831e-01
246.584       	3.845790e-01
246.943       	3.850403e-01
247.315       	3.855071e-01
247.716       	3.859957e-01
248.135       	3.868665e-01
248.56        	3.873763e-01
248.984       	3.876298e-01
249.417       	3.881553e-01
249.85        	3.884130e-01
250.28        	3.886660e-01
250.705       	3.889102e-01
251.128       	3.891471e-01
251.544       	3.893743e-01
251.953       	3.895929e-01
252.35        	3.897998e-01
252.734       	3.902606e-01
253.104       	3.904442e-01
253.459       	3.906160e-01
253.8         	3.910435e-01
254.134       	3.913282e-01
254.467       	3.916113e-01
254.803       	3.917590e-01
255.148       	3.919121e-01
255.494       	3.920685e-01
255.83        	3.922227e-01
256.157       	3.923752e-01
256.477       	3.925275e-01
256.801       	3.926841e-01
257.142       	3.928515e-01
257.513       	3.937174e-01
257.888       	3.939062e-01
258.263       	3.940983e-01
258.647       	3.942979e-01
259.052       	3.945114e-01
259.482       	3.950066e-01
259.914       	3.952435e-01
260.334       	3.954822e-01
260.743       	3.962517e-01
261.146       	3.967500e-01
261.54        	3.973111e-01
261.915       	3.975265e-01
262.27        	3.979986e-01
262.608       	3.984583e-01
262.936       	3.986453e-01
263.259       	3.988262e-01
263.58        	3.990030e-01
263.901       	3.991758e-01
264.225       	3.996116e-01
264.556       	3.997790e-01
264.906       	4.002206e-01
265.272       	4.004052e-01
265.639       	4.008587e-01
266.008       	4.015773e-01
266.385       	4.017692e-01
266.767       	4.019702e-01
267.148       	4.021747e-01
267.54        	4.023811e-01
267.946       	4.025977e-01
268.354       	4.028152e-01
268.76        	4.030301e-01
269.163       	4.032440e-01
269.571       	4.037244e-01
269.99        	4.039449e-01
270.425       	4.041790e-01
270.852       	4.044120e-01
271.268       	4.046382e-01
271.676       	4.056553e-01
272.064       	4.058607e-01
272.423       	4.060522e-01
272.768       	4.062337e-01
273.118       	4.064156e-01
273.466       	4.065951e-01
273.807       	4.067707e-01
274.15        	4.069470e-01
274.497       	4.071245e-01
274.829       	4.072930e-01
275.149       	4.074541e-01
275.464       	4.076092e-01
275.78        	4.077664e-01
276.112       	4.081967e-01
276.474       	4.083736e-01
276.842       	4.085625e-01
277.2         	4.090174e-01
277.564       	4.092140e-01
277.949       	4.096940e-01
278.377       	4.099347e-01
278.815       	4.107165e-01
279.242       	4.112229e-01
279.669       	4.114676e-01
280.095       	4.117127e-01
280.518       	4.119504e-01
280.945       	4.124502e-01
281.38        	4.129430e-01
281.796       	4.131561e-01
282.179       	4.136170e-01
282.533       	4.137934e-01
282.87        	4.144859e-01
283.204       	4.151737e-01
283.525       	4.153231e-01
283.839       	4.157304e-01
284.156       	4.158729e-01
284.481       	4.160187e-01
284.813       	4.161682e-01
285.131       	4.163121e-01
285.435       	4.164512e-01
285.732       	4.165885e-01
286.027       	4.167272e-01
286.335       	4.171394e-01
286.67        	4.173003e-01
287.03        	4.174788e-01
287.377       	4.178868e-01
287.732       	4.181028e-01
288.119       	4.185715e-01
288.547       	4.187956e-01
288.982       	4.190312e-01
289.418       	4.195385e-01
289.857       	4.197837e-01
290.303       	4.200293e-01
290.756       	4.205380e-01
291.2         	4.207692e-01
291.644       	4.213864e-01
292.076       	4.217264e-01
292.481       	4.219183e-01
292.861       	4.220977e-01
293.222       	4.222676e-01
293.572       	4.224334e-01
293.921       	4.225992e-01
294.273       	4.227673e-01
294.634       	4.229377e-01
294.983       	4.231031e-01
295.315       	4.232595e-01
295.633       	4.234070e-01
295.941       	4.235470e-01
296.248       	4.236851e-01
296.563       	4.240934e-01
296.903       	4.242480e-01
297.274       	4.244220e-01
297.635       	4.245990e-01
297.993       	4.247835e-01
298.363       	4.255112e-01
298.765       	4.259946e-01
299.217       	4.262438e-01
299.672       	4.265014e-01
300.121       	4.270235e-01
300.557       	4.274721e-01
300.99        	4.280496e-01
301.421       	4.282893e-01
301.853       	4.285260e-01
302.276       	4.290093e-01
302.697       	4.294874e-01
303.099       	4.296859e-01
303.477       	4.298700e-01
303.834       	4.300402e-01
304.176       	4.301994e-01
304.509       	4.303506e-01
304.846       	4.304992e-01
305.187       	4.308453e-01
305.53        	4.310605e-01
305.858       	4.312018e-01
306.174       	4.313393e-01
306.483       	4.314744e-01
306.795       	4.316119e-01
307.124       	4.317593e-01
307.485       	4.319263e-01
307.858       	4.321054e-01
308.208       	4.325419e-01
308.562       	4.327202e-01
308.938       	4.329159e-01
309.358       	4.331396e-01
309.805       	4.336468e-01
310.242       	4.338841e-01
310.693       	4.343917e-01
311.135       	4.348876e-01
311.579       	4.351158e-01
312.019       	4.356010e-01
312.464       	4.358168e-01
312.899       	4.360243e-01
313.309       	4.364838e-01
313.691       	4.366635e-01
314.05        	4.370996e-01
314.391       	4.375276e-01
314.723       	4.376849e-01
315.054       	4.378398e-01
315.389       	4.379972e-01
315.728       	4.381561e-01
316.075       	4.385801e-01
316.412       	4.387328e-01
316.738       	4.388757e-01
317.061       	4.390159e-01
317.387       	4.391576e-01
317.726       	4.395701e-01
318.092       	4.399918e-01
318.481       	4.401641e-01
318.858       	4.403385e-01
319.24        	4.407852e-01
319.644       	4.412478e-01
320.081       	4.414701e-01
320.545       	4.419832e-01
321.008       	4.422382e-01
321.473       	4.425005e-01
321.929       	4.427607e-01
322.384       	4.430164e-01
322.831       	4.432647e-01
323.268       	4.440308e-01
323.716       	4.445290e-01
324.163       	4.450163e-01
324.59        	4.452275e-01
324.998       	4.454236e-01
325.404       	4.456165e-01
325.793       	4.463284e-01
326.17        	4.469947e-01
326.544       	4.471884e-01
326.915       	4.473468e-01
327.269       	4.474965e-01
327.612       	4.476378e-01
327.945       	4.477745e-01
328.27        	4.479089e-01
328.592       	4.480434e-01
328.921       	4.481811e-01
329.27        	4.485948e-01
329.652       	4.490235e-01
330.028       	4.494519e-01
330.397       	4.496178e-01
330.776       	4.500565e-01
331.187       	4.505109e-01
331.655       	4.507309e-01
332.146       	4.512307e-01
332.622       	4.514636e-01
333.091       	4.517007e-01
333.558       	4.522047e-01
334.027       	4.524500e-01
334.501       	4.526978e-01
334.96        	4.529421e-01
335.384       	4.531658e-01
335.768       	4.533675e-01
336.123       	4.535529e-01
336.462       	4.539908e-01
336.79        	4.541560e-01
337.114       	4.545652e-01
337.437       	4.547370e-01
337.765       	4.548933e-01
338.101       	4.550513e-01
338.444       	4.552120e-01
338.798       	4.553781e-01
339.158       	4.555473e-01
339.513       	4.557133e-01
339.867       	4.558784e-01
340.222       	4.560442e-01
340.588       	4.562158e-01
340.973       	4.563998e-01
341.359       	4.565890e-01
341.745       	4.567823e-01
342.136       	4.569800e-01
342.543       	4.574531e-01
342.971       	4.576751e-01
343.437       	4.579211e-01
343.925       	4.586105e-01
344.4         	4.597616e-01
344.855       	4.608012e-01
345.302       	4.615581e-01
345.748       	4.617833e-01
346.191       	4.620053e-01
346.638       	4.624975e-01
347.087       	4.629857e-01
347.539       	4.637640e-01
347.995       	4.639862e-01
348.445       	4.644663e-01
348.886       	4.646784e-01
349.317       	4.648784e-01
349.744       	4.650703e-01
350.174       	4.652586e-01
350.619       	4.657104e-01
351.037       	4.658819e-01
351.429       	4.660426e-01
351.805       	4.661982e-01
352.176       	4.663497e-01
352.547       	4.665037e-01
352.931       	4.666655e-01
353.335       	4.670959e-01
353.728       	4.672740e-01
354.117       	4.674449e-01
354.507       	4.676198e-01
354.907       	4.680655e-01
355.316       	4.682574e-01
355.744       	4.684668e-01
356.197       	4.686950e-01
356.661       	4.689336e-01
357.101       	4.694243e-01
357.513       	4.698927e-01
